 Gaussian 09, Revision D.01,
 Gaussian 09:  ES64L-G09RevD.01 24-Apr-2013

 --------------------------------------------------------------------
 #p PW91PW91/6-31G(d) 5d TD=(nstate=20) scf(conver=7) gfinput gfprint
 --------------------------------------------------------------------

 -----
 APA-2
 -----
 Symbolic Z-matrix:
 Charge =  0 Multiplicity = 1

                         Standard orientation:
 ---------------------------------------------------------------------
 Center     Atomic      Atomic             Coordinates (Angstroms)
 Number     Number       Type             X           Y           Z
 ---------------------------------------------------------------------
      1          6           0       -2.487591   -0.241204   -0.332965
      2          6           0       -1.908569   -0.930898    0.739572
      3          6           0       -0.589579   -0.699735    1.101405
      4          6           0        0.222165    0.216399    0.396531
      5          6           0       -0.365843    0.894952   -0.689223
      6          6           0       -1.695363    0.669155   -1.036066
      7          1           0       -2.503301   -1.667935    1.281008
      8          1           0       -0.158399   -1.247995    1.944052
      9          1           0        0.203577    1.629290   -1.252852
     10          7           0       -3.837570   -0.482981   -0.722823
     11          6           0       -5.005454   -0.167113   -0.055464
     12          1           0       -4.013309   -0.888520   -1.644697
     13          8           0       -6.098130   -0.452544   -0.543279
     14          6           0       -4.875317    0.579087    1.255931
     15          1           0       -3.944102    0.369334    1.795556
     16          1           0       -4.905087    1.660649    1.047342
     17          1           0       -5.743756    0.332095    1.877500
     18          7           0        1.520359    0.426812    0.841464
     19          1           0        1.781254   -0.233500    1.572145
     20          1           0       -2.136024    1.218866   -1.870044
     21          6           0        2.684023    0.877235    0.044687
     22          6           0        3.939687    0.525358    0.879049
     23          6           0        2.779599    0.155282   -1.321946
     24          6           0        4.208200   -0.979904    1.006196
     25          1           0        3.847257    0.995096    1.873557
     26          1           0        4.803327    1.001664    0.385039
     27          6           0        3.011691   -1.352284   -1.185874
     28          1           0        1.868447    0.345340   -1.908984
     29          1           0        3.615735    0.609832   -1.882407
     30          6           0        4.270317   -1.654392   -0.367091
     31          1           0        3.420660   -1.467808    1.610809
     32          1           0        5.148335   -1.138347    1.559474
     33          1           0        2.133002   -1.814264   -0.701653
     34          1           0        3.088765   -1.805861   -2.187156
     35          1           0        5.155717   -1.279824   -0.912977
     36          1           0        4.405931   -2.742108   -0.252445
     37          6           0        2.646792    2.402587   -0.143442
     38          1           0        2.584437    2.901913    0.834681
     39          1           0        3.559293    2.742617   -0.657117
     40          1           0        1.785212    2.725839   -0.742904
 ---------------------------------------------------------------------

 SCF Done:  E(RPW91-PW91) =  -769.264803357     A.U. after   16 cycles

 Excitation energies and oscillator strengths:

 Excited State   1:      Singlet-A      3.9762 eV  311.82 nm  f=0.0147  <S**2>=0.000
      64 -> 69         0.12335
      66 -> 68        -0.28103
      67 -> 68         0.63098
 This state for optimization and/or second-order correction.
 Total Energy, E(TD-HF/TD-KS) =  -769.118681507
 Copying the excited state density for this state as the 1-particle RhoCI density.

 Excited State   2:      Singlet-A      4.1923 eV  295.75 nm  f=0.0062  <S**2>=0.000
      66 -> 68         0.64697
      67 -> 68         0.26220

 Excited State   3:      Singlet-A      4.4211 eV  280.43 nm  f=0.0757  <S**2>=0.000
      66 -> 69         0.59187
      67 -> 69        -0.37527

 Excited State   4:      Singlet-A      4.6442 eV  266.96 nm  f=0.2002  <S**2>=0.000
      66 -> 69         0.33972
      67 -> 69         0.45182
      67 -> 70        -0.39092

 Excited State   5:      Singlet-A      4.7894 eV  258.87 nm  f=0.0060  <S**2>=0.000
      65 -> 68         0.69836

 Excited State   6:      Singlet-A      4.9114 eV  252.44 nm  f=0.1033  <S**2>=0.000
      65 -> 69        -0.36465
      66 -> 69         0.13211
      67 -> 69         0.26838
      67 -> 70         0.51508

 Excited State   7:      Singlet-A      5.3107 eV  233.46 nm  f=0.0441  <S**2>=0.000
      64 -> 68        -0.11567
      65 -> 69         0.56268
      65 -> 70         0.12114
      66 -> 69         0.11434
      66 -> 70        -0.18923
      67 -> 69         0.20292
      67 -> 70         0.23541

 Excited State   8:      Singlet-A      5.4721 eV  226.58 nm  f=0.0035  <S**2>=0.000
      65 -> 69         0.13975
      65 -> 70         0.11761
      66 -> 70         0.67032

 Excited State   9:      Singlet-A      5.5058 eV  225.19 nm  f=0.0008  <S**2>=0.000
      67 -> 71         0.70078

 Excited State  10:      Singlet-A      5.9003 eV  210.13 nm  f=0.0150  <S**2>=0.000
      63 -> 68        -0.42545
      64 -> 69         0.53232
      64 -> 70        -0.13312

 Excited State  11:      Singlet-A      5.9947 eV  206.82 nm  f=0.0004  <S**2>=0.000
      66 -> 71         0.70442

 Excited State  12:      Singlet-A      6.0336 eV  205.49 nm  f=0.0005  <S**2>=0.000
      67 -> 72         0.70062

 Excited State  13:      Singlet-A      6.1426 eV  201.84 nm  f=0.0022  <S**2>=0.000
      67 -> 73         0.70173

 Excited State  14:      Singlet-A      6.2614 eV  198.01 nm  f=0.0487  <S**2>=0.000
      62 -> 68         0.51357
      63 -> 68         0.29001
      64 -> 68        -0.18618
      64 -> 70        -0.30798

 Excited State  15:      Singlet-A      6.3228 eV  196.09 nm  f=0.0083  <S**2>=0.000
      62 -> 68         0.42471
      63 -> 68        -0.19401
      64 -> 70         0.51277

 Excited State  16:      Singlet-A      6.4750 eV  191.48 nm  f=0.3245  <S**2>=0.000
      61 -> 68        -0.10477
      62 -> 68         0.16979
      63 -> 69         0.35404
      64 -> 68         0.51670
      64 -> 69         0.10034

 Excited State  17:      Singlet-A      6.5326 eV  189.79 nm  f=0.0275  <S**2>=0.000
      61 -> 68         0.49875
      62 -> 69         0.19220
      63 -> 68        -0.21550
      63 -> 69         0.15754
      64 -> 69        -0.17774
      64 -> 70        -0.25687
      66 -> 72         0.13326

 Excited State  18:      Singlet-A      6.5475 eV  189.36 nm  f=0.0016  <S**2>=0.000
      66 -> 72         0.68723

 Excited State  19:      Singlet-A      6.5833 eV  188.33 nm  f=0.0002  <S**2>=0.000
      62 -> 69         0.17834
      63 -> 69         0.11677
      65 -> 71         0.65730

 Excited State  20:      Singlet-A      6.6076 eV  187.64 nm  f=0.1037  <S**2>=0.000
      61 -> 68        -0.19083
      62 -> 69         0.55788
      63 -> 69         0.16049
      64 -> 68        -0.18544
      65 -> 71        -0.22429

 The electronic state is 1-A.
 Alpha  occ. eigenvalues --  -18.72789 -14.02646 -14.02458  -9.98568  -9.95641
 Alpha  occ. eigenvalues --   -9.94904  -9.93506  -9.91123  -9.91069  -9.90787
 Alpha  occ. eigenvalues --   -9.90725  -9.90575  -9.90450  -9.90350  -9.90192
 Alpha  occ. eigenvalues --   -9.90168  -9.89608  -9.88993  -0.92194  -0.85909
 Alpha  occ. eigenvalues --   -0.83272  -0.77010  -0.74460  -0.69977  -0.68106
 Alpha  occ. eigenvalues --   -0.67466  -0.65732  -0.64531  -0.61608  -0.56401
 Alpha  occ. eigenvalues --   -0.56095  -0.54982  -0.52955  -0.50860  -0.49745
 Alpha  occ. eigenvalues --   -0.47522  -0.46789  -0.44207  -0.42080  -0.40584
 Alpha  occ. eigenvalues --   -0.40397  -0.40023  -0.39283  -0.38742  -0.37828
 Alpha  occ. eigenvalues --   -0.37559  -0.36959  -0.35889  -0.35513  -0.34033
 Alpha  occ. eigenvalues --   -0.33948  -0.33394  -0.33121  -0.33004  -0.32137
 Alpha  occ. eigenvalues --   -0.31497  -0.30932  -0.30766  -0.29434  -0.28511
 Alpha  occ. eigenvalues --   -0.27637  -0.26467  -0.25687  -0.22452  -0.20682
 Alpha  occ. eigenvalues --   -0.18536  -0.16602
 Alpha virt. eigenvalues --   -0.03326  -0.02196   0.00832   0.03475   0.05524
 Alpha virt. eigenvalues --    0.05801   0.07842   0.07935   0.08714   0.10017
 Alpha virt. eigenvalues --    0.10433   0.11106   0.11924   0.12080   0.12839

 Mulliken charges:
               1
     1  C    0.244059
     2  C   -0.148470
     3  C   -0.229463
     4  C    0.355860
     5  C   -0.195786
     6  C   -0.165734
     7  H    0.139840
     8  H    0.123020
     9  H    0.133230
    10  N   -0.621280
    11  C    0.481304
    12  H    0.324603
    13  O   -0.435005
    14  C   -0.578303
    15  H    0.173741
    16  H    0.189003
    17  H    0.189148
    18  N   -0.626466
    19  H    0.314817
    20  H    0.134784
    21  C    0.203674
    22  C   -0.322454
    23  C   -0.291780
    24  C   -0.297728
    25  H    0.151578
    26  H    0.152004
    27  C   -0.288698
    28  H    0.152747
    29  H    0.139155
    30  C   -0.277872
    31  H    0.135986
    32  H    0.153679
    33  H    0.150595
    34  H    0.148627
    35  H    0.142165
    36  H    0.147126
    37  C   -0.483628
    38  H    0.164052
    39  H    0.151980
    40  H    0.165891
 Sum of Mulliken charges =   0.00000

 Dipole moment (field-independent basis, Debye):
    X=              6.2960    Y=              0.2415    Z=              0.7201  Tot=              6.3416
 Quadrupole moment (field-independent basis, Debye-Ang):
   XX=           -135.2467   YY=           -107.0988   ZZ=           -103.2551
   XY=             -3.8502   XZ=             -3.5698   YZ=             -3.2090

 Normal termination of Gaussian 09 at Thu Feb 27 01:20:43 2020.
