 Gaussian 09, Revision D.01,
 Gaussian 09:  ES64L-G09RevD.01 24-Apr-2013

 --------------------------------------------------------------------
 #p PW91PW91/6-31G(d) 5d TD=(nstate=20) scf(conver=7) gfinput gfprint
 --------------------------------------------------------------------

 ----------------
 phenanthroline-1
 ----------------
 Symbolic Z-matrix:
 Charge =  0 Multiplicity = 1

                         Standard orientation:
 ---------------------------------------------------------------------
 Center     Atomic      Atomic             Coordinates (Angstroms)
 Number     Number       Type             X           Y           Z
 ---------------------------------------------------------------------
      1          6           0       -3.480588   -0.369558   -0.003287
      2          6           0       -2.824167    0.843565    0.001421
      3          6           0       -1.413727    0.870197    0.002296
      4          6           0       -0.727491   -0.381759   -0.000759
      5          6           0       -2.705520   -1.545139   -0.000752
      6          6           0       -0.682744    2.097314    0.004471
      7          6           0        0.728203   -0.381879   -0.000434
      8          6           0        1.412930    0.870035   -0.002987
      9          6           0        0.681175    2.096948   -0.001463
     10          6           0        2.822857    0.844381   -0.004576
     11          1           0        3.373147    1.788254   -0.006071
     12          6           0        3.480354   -0.367835    0.000396
     13          6           0        2.707303   -1.544734    0.003743
     14          1           0       -1.240800    3.036704    0.008210
     15          1           0       -4.569594   -0.428337   -0.002992
     16          1           0       -3.375453    1.786993    0.004624
     17          1           0       -3.200653   -2.522254   -0.000730
     18          1           0        1.239665    3.036073   -0.001458
     19          1           0        4.570103   -0.424056    0.002249
     20          1           0        3.203215   -2.521224    0.007995
     21          7           0       -1.380944   -1.567086   -0.000819
     22          7           0        1.382211   -1.567395    0.000784
 ---------------------------------------------------------------------

 SCF Done:  E(RPW91-PW91) =  -571.385983258     A.U. after   13 cycles

 Excitation energies and oscillator strengths:

 Excited State   1:      Singlet-A      3.1700 eV  391.12 nm  f=0.0004  <S**2>=0.000
      47 -> 48         0.70155
 This state for optimization and/or second-order correction.
 Total Energy, E(TD-HF/TD-KS) =  -571.269488393
 Copying the excited state density for this state as the 1-particle RhoCI density.

 Excited State   2:      Singlet-A      3.3058 eV  375.05 nm  f=0.0000  <S**2>=0.000
      45 -> 48         0.16612
      47 -> 49         0.68564

 Excited State   3:      Singlet-A      3.5924 eV  345.13 nm  f=0.0000  <S**2>=0.000
      45 -> 48         0.68498
      47 -> 49        -0.16208

 Excited State   4:      Singlet-A      3.7482 eV  330.78 nm  f=0.0019  <S**2>=0.000
      45 -> 49         0.69350

 Excited State   5:      Singlet-A      3.7642 eV  329.38 nm  f=0.0008  <S**2>=0.000
      44 -> 48        -0.34702
      46 -> 49         0.60209

 Excited State   6:      Singlet-A      3.9810 eV  311.44 nm  f=0.0369  <S**2>=0.000
      44 -> 49         0.35519
      46 -> 48         0.59330

 Excited State   7:      Singlet-A      4.3364 eV  285.91 nm  f=0.0449  <S**2>=0.000
      44 -> 48         0.54464
      46 -> 49         0.31015
      46 -> 50         0.28066

 Excited State   8:      Singlet-A      4.3831 eV  282.87 nm  f=0.0000  <S**2>=0.000
      47 -> 50         0.70256

 Excited State   9:      Singlet-A      4.7742 eV  259.70 nm  f=0.5026  <S**2>=0.000
      42 -> 48         0.11364
      43 -> 50         0.10818
      44 -> 49         0.53250
      44 -> 50         0.26797
      46 -> 48        -0.31267
      46 -> 51        -0.12611

 Excited State  10:      Singlet-A      4.7838 eV  259.18 nm  f=0.0047  <S**2>=0.000
      45 -> 50         0.68217
      47 -> 51         0.16614

 Excited State  11:      Singlet-A      4.9829 eV  248.82 nm  f=0.0408  <S**2>=0.000
      42 -> 49        -0.12389
      43 -> 48        -0.44821
      44 -> 48        -0.17549
      46 -> 49        -0.12411
      46 -> 50         0.46595

 Excited State  12:      Singlet-A      5.0562 eV  245.21 nm  f=0.0010  <S**2>=0.000
      45 -> 50        -0.16054
      47 -> 51         0.68395

 Excited State  13:      Singlet-A      5.2348 eV  236.84 nm  f=0.0131  <S**2>=0.000
      42 -> 48         0.28633
      43 -> 49         0.55956
      44 -> 49         0.10828
      44 -> 50        -0.28438

 Excited State  14:      Singlet-A      5.2662 eV  235.43 nm  f=0.0569  <S**2>=0.000
      42 -> 48         0.52173
      44 -> 49        -0.14740
      44 -> 50         0.27792
      46 -> 51         0.34545

 Excited State  15:      Singlet-A      5.4436 eV  227.76 nm  f=0.0001  <S**2>=0.000
      45 -> 51         0.70372

 Excited State  16:      Singlet-A      5.4925 eV  225.73 nm  f=0.0024  <S**2>=0.000
      42 -> 49         0.54761
      43 -> 48        -0.22006
      44 -> 51         0.35776

 Excited State  17:      Singlet-A      5.6322 eV  220.13 nm  f=0.4955  <S**2>=0.000
      41 -> 48         0.11481
      43 -> 49        -0.15263
      44 -> 49         0.20663
      44 -> 50        -0.39671
      46 -> 48        -0.17270
      46 -> 51         0.46537

 Excited State  18:      Singlet-A      5.9186 eV  209.48 nm  f=0.1471  <S**2>=0.000
      41 -> 49         0.21522
      43 -> 48         0.41236
      44 -> 48        -0.14905
      44 -> 51         0.31401
      46 -> 50         0.37232

 Excited State  19:      Singlet-A      6.1335 eV  202.14 nm  f=0.0020  <S**2>=0.000
      47 -> 52         0.70104

 Excited State  20:      Singlet-A      6.1800 eV  200.62 nm  f=0.0084  <S**2>=0.000
      41 -> 48         0.49643
      42 -> 48        -0.15837
      43 -> 49         0.15805
      44 -> 50         0.15728
      46 -> 51         0.12355
      46 -> 52         0.38541

 The electronic state is 1-A.
 Alpha  occ. eigenvalues --  -14.00291 -14.00280  -9.94390  -9.94380  -9.93754
 Alpha  occ. eigenvalues --   -9.93744  -9.92602  -9.92592  -9.92525  -9.92515
 Alpha  occ. eigenvalues --   -9.91910  -9.91873  -9.91689  -9.91684  -0.86860
 Alpha  occ. eigenvalues --   -0.84728  -0.77241  -0.73367  -0.72616  -0.67726
 Alpha  occ. eigenvalues --   -0.67275  -0.59366  -0.58240  -0.56796  -0.54049
 Alpha  occ. eigenvalues --   -0.49805  -0.47923  -0.46074  -0.43521  -0.43248
 Alpha  occ. eigenvalues --   -0.41316  -0.39210  -0.38103  -0.37174  -0.36188
 Alpha  occ. eigenvalues --   -0.35752  -0.35049  -0.34498  -0.32534  -0.30757
 Alpha  occ. eigenvalues --   -0.30237  -0.26944  -0.26282  -0.22064  -0.20911
 Alpha  occ. eigenvalues --   -0.20726  -0.19426
 Alpha virt. eigenvalues --   -0.07922  -0.07667  -0.03545  -0.01162   0.02841
 Alpha virt. eigenvalues --    0.06228   0.07585   0.09172   0.09380   0.11936
 Alpha virt. eigenvalues --    0.11995   0.14220   0.14763   0.15673   0.16384

 Mulliken charges:
               1
     1  C   -0.142026
     2  C   -0.167805
     3  C    0.167424
     4  C    0.139546
     5  C   -0.011954
     6  C   -0.199881
     7  C    0.139763
     8  C    0.167782
     9  C   -0.199954
    10  C   -0.167800
    11  H    0.142521
    12  C   -0.142192
    13  C   -0.011800
    14  H    0.136682
    15  H    0.141899
    16  H    0.142551
    17  H    0.145194
    18  H    0.136586
    19  H    0.141840
    20  H    0.145386
    21  N   -0.351703
    22  N   -0.352058
 Sum of Mulliken charges =   0.00000

 Dipole moment (field-independent basis, Debye):
    X=              0.0002    Y=              3.1544    Z=              0.0058  Tot=              3.1544
 Quadrupole moment (field-independent basis, Debye-Ang):
   XX=            -59.2107   YY=            -76.4522   ZZ=            -81.9858
   XY=             -0.0019   XZ=             -0.0008   YZ=              0.0009

 Normal termination of Gaussian 09 at Thu Feb 27 01:57:13 2020.
